# ODT 1.0
## Desc: Data from vector field file C:\Users\Becken\Desktop\lsj\10.omf
Unable to format "## Active volume: (%.15g,%.15g,%.15g) x (%.15g,%.15g,%.15g)
## Cell size: %.15g x %.15g x %.15g
## Cells in active volume: %I64d
" with supplied arguments: -2e-7 -2e-8 -2e-10 2.0000000000000007e-7 3.0000000000000004e-8 2e-10 1e-9 1e-9 4e-10 20000#
# Table Start
# Title: Points in specified volume
# Columns:\
#         x                    y                    z                   M_x                  M_y                  M_z         
#   Units:\
#         m                    m                    m                   A/m                  A/m                  A/m         
 -1.99500000000000e-007 -1.95000000000000e-008  0.000000000000000    239105.281250000     239010.718750000     471277.562500000   
 -1.98500000000000e-007 -1.95000000000000e-008  0.000000000000000    198871.062500000     239293.046875000     489478.437500000   
 -1.97500000000000e-007 -1.95000000000000e-008  0.000000000000000    164167.593750000     240156.890625000     501770.531250000   
 -1.96500000000000e-007 -1.95000000000000e-008  0.000000000000000    134824.937500000     241321.078125000     509888.593750000   
 -1.95500000000000e-007 -1.95000000000000e-008  0.000000000000000    110332.812500000     242647.484375000     515120.250000000   
 -1.94500000000000e-007 -1.95000000000000e-008  0.000000000000000    90062.5000000000     244053.875000000     518388.312500000   
 -1.93500000000000e-007 -1.95000000000000e-008  0.000000000000000    73381.9296875000     245483.718750000     520339.156250000   
 -1.92500000000000e-007 -1.95000000000000e-008  0.000000000000000    59709.1054687500     246895.515625000     521418.656250000   
 -1.91500000000000e-007 -1.95000000000000e-008  0.000000000000000    48532.4140625000     248258.593750000     521931.281250000   
 -1.90500000000000e-007 -1.95000000000000e-008  0.000000000000000    39414.1679687500     249551.015625000     522083.156250000   
 -1.89500000000000e-007 -1.95000000000000e-008  0.000000000000000    31986.1308593750     250758.156250000     522012.687500000   
 -1.88500000000000e-007 -1.95000000000000e-008  0.000000000000000    25941.7792968750     251871.406250000     521812.062500000   
 -1.87500000000000e-007 -1.95000000000000e-008  0.000000000000000    21027.7753906250     252886.921875000     521541.968750000   
 -1.86500000000000e-007 -1.95000000000000e-008  0.000000000000000    17035.7070312500     253804.593750000     521241.781250000   
 -1.85500000000000e-007 -1.95000000000000e-008  0.000000000000000    13794.6923828125     254627.078125000     520936.437500000   
 -1.84500000000000e-007 -1.95000000000000e-008  0.000000000000000    11164.9365234375     255358.921875000     520641.125000000   
 -1.83500000000000e-007 -1.95000000000000e-008  0.000000000000000    9032.27734375000     256006.000000000     520364.625000000   
 -1.82500000000000e-007 -1.95000000000000e-008  0.000000000000000    7303.59326171875     256574.906250000     520111.500000000   
 -1.81500000000000e-007 -1.95000000000000e-008  0.000000000000000    5903.01660156250     257072.593750000     519883.500000000   
 -1.80500000000000e-007 -1.95000000000000e-008  0.000000000000000    4768.77246093750     257505.984375000     519680.593750000   
 -1.79500000000000e-007 -1.95000000000000e-008  0.000000000000000    3850.61279296875     257881.890625000     519501.781250000   
 -1.78500000000000e-007 -1.95000000000000e-008  0.000000000000000    3107.67602539063     258206.718750000     519345.375000000   
 -1.77500000000000e-007 -1.95000000000000e-008  0.000000000000000    2506.76831054688     258486.500000000     519209.437500000   
 -1.76500000000000e-007 -1.95000000000000e-008  0.000000000000000    2020.92321777344     258726.750000000     519091.875000000   
 -1.75500000000000e-007 -1.95000000000000e-008  0.000000000000000    1628.26159667969     258932.468750000     518990.687500000   
 -1.74500000000000e-007 -1.95000000000000e-008  0.000000000000000    1311.02282714844     259108.187500000     518903.875000000   
 -1.73500000000000e-007 -1.95000000000000e-008  0.000000000000000    1054.81408691406     259257.921875000     518829.656250000   
 -1.72500000000000e-007 -1.95000000000000e-008  0.000000000000000    847.958984375000     259385.218750000     518766.406250000   
 -1.71500000000000e-007 -1.95000000000000e-008  0.000000000000000    681.007263183594     259493.234375000     518712.625000000   
 -1.70500000000000e-007 -1.95000000000000e-008  0.000000000000000    546.294616699219     259584.687500000     518667.031250000   
 -1.69500000000000e-007 -1.95000000000000e-008  0.000000000000000    437.626617431641     259661.968750000     518628.437500000   
 -1.68500000000000e-007 -1.95000000000000e-008  0.000000000000000    349.978973388672     259727.140625000     518595.875000000   
 -1.67500000000000e-007 -1.95000000000000e-008  0.000000000000000    279.297393798828     259781.968750000     518568.468750000   
 -1.66500000000000e-007 -1.95000000000000e-008  0.000000000000000    222.290740966797     259828.000000000     518545.437500000   
 -1.65500000000000e-007 -1.95000000000000e-008  0.000000000000000    176.308074951172     259866.531250000     518526.125000000   
 -1.64500000000000e-007 -1.95000000000000e-008  0.000000000000000    139.193023681641     259898.656250000     518510.031250000   
 -1.63500000000000e-007 -1.95000000000000e-008  0.000000000000000    109.212020874023     259925.328125000     518496.687500000   
 -1.62500000000000e-007 -1.95000000000000e-008  0.000000000000000    84.9488067626953     259947.328125000     518485.656250000   
 -1.61500000000000e-007 -1.95000000000000e-008  0.000000000000000    65.2666168212891     259965.312500000     518476.656250000   
 -1.60500000000000e-007 -1.95000000000000e-008  0.000000000000000    49.2287063598633     259979.843750000     518469.375000000   
 -1.59500000000000e-007 -1.95000000000000e-008  0.000000000000000    36.0830039978027     259991.312500000     518463.625000000   
 -1.58500000000000e-007 -1.95000000000000e-008  0.000000000000000    25.1993598937988     260000.109375000     518459.187500000   
 -1.57500000000000e-007 -1.95000000000000e-008  0.000000000000000    16.0687828063965     260006.468750000     518456.000000000   
 -1.56500000000000e-007 -1.95000000000000e-008  0.000000000000000    8.25129699707031     260010.609375000     518453.937500000   
 -1.55500000000000e-007 -1.95000000000000e-008  0.000000000000000    1.38445281982422     260012.609375000     518452.937500000   
 -1.54500000000000e-007 -1.95000000000000e-008  0.000000000000000   -4.86247587203979     260012.546875000     518452.968750000   
 -1.53500000000000e-007 -1.95000000000000e-008  0.000000000000000   -10.7743577957153     260010.406250000     518454.031250000   
 -1.52500000000000e-007 -1.95000000000000e-008  0.000000000000000   -16.6326351165771     260006.062500000     518456.218750000   
 -1.51500000000000e-007 -1.95000000000000e-008  0.000000000000000   -22.6982803344727     259999.390625000     518459.562500000   
 -1.50500000000000e-007 -1.95000000000000e-008  0.000000000000000   -29.2530574798584     259990.125000000     518464.218750000   
 -1.49500000000000e-007 -1.95000000000000e-008  0.000000000000000   -36.5817260742188     259977.953125000     518470.312500000   
 -1.48500000000000e-007 -1.95000000000000e-008  0.000000000000000   -45.0139350891113     259962.437500000     518478.093750000   
 -1.47500000000000e-007 -1.95000000000000e-008  0.000000000000000   -54.9075775146484     259943.046875000     518487.812500000   
 -1.46500000000000e-007 -1.95000000000000e-008  0.000000000000000   -66.6929855346680     259919.125000000     518499.812500000   
 -1.45500000000000e-007 -1.95000000000000e-008  0.000000000000000   -80.8592605590820     259889.843750000     518514.468750000   
 -1.44500000000000e-007 -1.95000000000000e-008  0.000000000000000   -98.0025100708008     259854.218750000     518532.343750000   
 -1.43500000000000e-007 -1.95000000000000e-008  0.000000000000000   -118.817070007324     259811.046875000     518553.968750000   
 -1.42500000000000e-007 -1.95000000000000e-008  0.000000000000000   -144.149505615234     259758.921875000     518580.062500000   
 -1.41500000000000e-007 -1.95000000000000e-008  0.000000000000000   -174.996810913086     259696.109375000     518611.500000000   
 -1.40500000000000e-007 -1.95000000000000e-008  0.000000000000000   -212.568054199219     259620.546875000     518649.312500000   
 -1.39500000000000e-007 -1.95000000000000e-008  0.000000000000000   -258.291381835938     259529.812500000     518694.718750000   
 -1.38500000000000e-007 -1.95000000000000e-008  0.000000000000000   -313.884857177734     259421.015625000     518749.125000000   
 -1.37500000000000e-007 -1.95000000000000e-008  0.000000000000000   -381.373809814453     259290.687500000     518814.218750000   
 -1.36500000000000e-007 -1.95000000000000e-008  0.000000000000000   -463.171386718750     259134.781250000     518892.031250000   
 -1.35500000000000e-007 -1.95000000000000e-008  0.000000000000000   -562.105895996094     258948.484375000     518984.937500000   
 -1.34500000000000e-007 -1.95000000000000e-008  0.000000000000000   -681.509582519531     258726.156250000     519095.656250000   
 -1.33500000000000e-007 -1.95000000000000e-008  0.000000000000000   -825.252441406250     258461.140625000     519227.468750000   
 -1.32500000000000e-007 -1.95000000000000e-008  0.000000000000000   -997.832092285156     258145.671875000     519384.062500000   
 -1.31500000000000e-007 -1.95000000000000e-008  0.000000000000000   -1204.40454101563     257770.640625000     519569.875000000   
 -1.30500000000000e-007 -1.95000000000000e-008  0.000000000000000   -1450.86022949219     257325.484375000     519789.843750000   
 -1.29500000000000e-007 -1.95000000000000e-008  0.000000000000000   -1743.82934570313     256797.937500000     520049.781250000   
 -1.28500000000000e-007 -1.95000000000000e-008  0.000000000000000   -2090.71508789063     256173.843750000     520356.218750000   
 -1.27500000000000e-007 -1.95000000000000e-008  0.000000000000000   -2499.63427734375     255436.921875000     520716.562500000   
 -1.26500000000000e-007 -1.95000000000000e-008  0.000000000000000   -2979.35644531250     254568.578125000     521139.093750000   
 -1.25500000000000e-007 -1.95000000000000e-008  0.000000000000000   -3539.11621093750     253547.718750000     521633.031250000   
 -1.24500000000000e-007 -1.95000000000000e-008  0.000000000000000   -4188.37744140625     252350.515625000     522208.468750000   
 -1.23500000000000e-007 -1.95000000000000e-008  0.000000000000000   -4936.42431640625     250950.421875000     522876.187500000   
 -1.22500000000000e-007 -1.95000000000000e-008  0.000000000000000   -5791.84375000000     249318.015625000     523647.750000000   
 -1.21500000000000e-007 -1.95000000000000e-008  0.000000000000000   -6761.77539062500     247421.250000000     524535.062500000   
 -1.20500000000000e-007 -1.95000000000000e-008  0.000000000000000   -7850.99658203125     245225.671875000     525549.937500000   
 -1.19500000000000e-007 -1.95000000000000e-008  0.000000000000000   -9060.72753906250     242695.046875000     526703.937500000   
 -1.18500000000000e-007 -1.95000000000000e-008  0.000000000000000   -10387.2441406250     239792.250000000     528007.375000000   
 -1.17500000000000e-007 -1.95000000000000e-008  0.000000000000000   -11820.2314453125     236480.593750000     529468.812500000   
 -1.16500000000000e-007 -1.95000000000000e-008  0.000000000000000   -13341.0283203125     232725.765625000     531093.875000000   
 -1.15500000000000e-007 -1.95000000000000e-008  0.000000000000000   -14920.7783203125     228498.281250000     532884.500000000   
 -1.14500000000000e-007 -1.95000000000000e-008  0.000000000000000   -16518.7675781250     223776.765625000     534837.437500000   
 -1.13500000000000e-007 -1.95000000000000e-008  0.000000000000000   -18081.1035156250     218551.906250000     536943.312500000   
 -1.12500000000000e-007 -1.95000000000000e-008  0.000000000000000   -19540.1699218750     212830.984375000     539185.625000000   
 -1.11500000000000e-007 -1.95000000000000e-008  0.000000000000000   -20815.1621093750     206643.078125000     541539.812500000   
 -1.10500000000000e-007 -1.95000000000000e-008  0.000000000000000   -21814.2050781250     200044.187500000     543972.875000000   
 -1.09500000000000e-007 -1.95000000000000e-008  0.000000000000000   -22438.3671875000     193121.843750000     546443.500000000   
 -1.08500000000000e-007 -1.95000000000000e-008  0.000000000000000   -22587.8125000000     185998.640625000     548902.812500000   
 -1.07500000000000e-007 -1.95000000000000e-008  0.000000000000000   -22170.0410156250     178833.250000000     551295.875000000   
 -1.06500000000000e-007 -1.95000000000000e-008  0.000000000000000   -21109.7382812500     171818.359375000     553563.750000000   
 -1.05500000000000e-007 -1.95000000000000e-008  0.000000000000000   -19359.2968750000     165174.546875000     555646.125000000   
 -1.04500000000000e-007 -1.95000000000000e-008  0.000000000000000   -16908.6464843750     159139.546875000     557484.250000000   
 -1.03500000000000e-007 -1.95000000000000e-008  0.000000000000000   -13792.6611328125     153953.500000000     559024.250000000   
 -1.02500000000000e-007 -1.95000000000000e-008  0.000000000000000   -10094.5283203125     149841.031250000     560219.375000000   
 -1.01500000000000e-007 -1.95000000000000e-008  0.000000000000000   -5943.73925781250     146992.218750000     561032.937500000   
 -1.00500000000000e-007 -1.95000000000000e-008  0.000000000000000   -1508.26269531250     145544.921875000     561439.562500000   
 -9.95000000000000e-008 -1.95000000000000e-008  0.000000000000000    3018.57446289063     145571.250000000     561426.687500000   
 -9.85000000000000e-008 -1.95000000000000e-008  0.000000000000000    7434.86816406250     147070.093750000     560994.750000000   
 -9.75000000000000e-008 -1.95000000000000e-008  0.000000000000000    11548.2148437500     149967.281250000     560157.500000000   
 -9.65000000000000e-008 -1.95000000000000e-008  0.000000000000000    15192.4101562500     154123.062500000     558941.187500000   
 -9.55000000000000e-008 -1.95000000000000e-008  0.000000000000000    18240.3906250000     159345.953125000     557383.312500000   
 -9.45000000000000e-008 -1.95000000000000e-008  0.000000000000000    20611.8535156250     165410.390625000     555530.875000000   
 -9.35000000000000e-008 -1.95000000000000e-008  0.000000000000000    22275.0175781250     172075.796875000     553438.125000000   
 -9.25000000000000e-008 -1.95000000000000e-008  0.000000000000000    23243.0390625000     179104.484375000     551163.625000000   
 -9.15000000000000e-008 -1.95000000000000e-008  0.000000000000000    23566.3984375000     186276.359375000     548767.500000000   
 -9.05000000000000e-008 -1.95000000000000e-008  0.000000000000000    23322.9433593750     193399.515625000     546308.187500000   
 -8.95000000000000e-008 -1.95000000000000e-008  0.000000000000000    22607.2695312500     200316.250000000     543840.312500000   
 -8.85000000000000e-008 -1.95000000000000e-008  0.000000000000000    21520.8476562500     206905.062500000     541412.187500000   
 -8.75000000000000e-008 -1.95000000000000e-008  0.000000000000000    20163.7929687500     213079.468750000     539064.500000000   
 -8.65000000000000e-008 -1.95000000000000e-008  0.000000000000000    18628.7539062500     218784.500000000     536829.875000000   
 -8.55000000000000e-008 -1.95000000000000e-008  0.000000000000000    16996.9453125000     223992.015625000     534732.375000000   
 -8.45000000000000e-008 -1.95000000000000e-008  0.000000000000000    15336.1162109375     228695.453125000     532788.125000000   
 -8.35000000000000e-008 -1.95000000000000e-008  0.000000000000000    13700.0537109375     232904.796875000     531006.250000000   
 -8.25000000000000e-008 -1.95000000000000e-008  0.000000000000000    12129.2207031250     236641.906250000     529389.750000000   
 -8.15000000000000e-008 -1.95000000000000e-008  0.000000000000000    10652.0869140625     239936.625000000     527936.500000000   
 -8.05000000000000e-008 -1.95000000000000e-008  0.000000000000000    9286.88183593750     242823.531250000     526640.750000000   
 -7.95000000000000e-008 -1.95000000000000e-008  0.000000000000000    8043.42724609375     245339.453125000     525493.937500000   
 -7.85000000000000e-008 -1.95000000000000e-008  0.000000000000000    6924.96875000000     247521.625000000     524485.562500000   
 -7.75000000000000e-008 -1.95000000000000e-008  0.000000000000000    5929.79345703125     249406.281250000     523604.187500000   
 -7.65000000000000e-008 -1.95000000000000e-008  0.000000000000000    5052.67578125000     251027.875000000     522837.906250000   
 -7.55000000000000e-008 -1.95000000000000e-008  0.000000000000000    4286.03369140625     252418.406250000     522174.843750000   
 -7.45000000000000e-008 -1.95000000000000e-008  0.000000000000000    3620.89794921875     253607.203125000     521603.562500000   
 -7.35000000000000e-008 -1.95000000000000e-008  0.000000000000000    3047.61425781250     254620.750000000     521113.218750000   
 -7.25000000000000e-008 -1.95000000000000e-008  0.000000000000000    2556.40991210938     255482.765625000     520693.781250000   
 -7.15000000000000e-008 -1.95000000000000e-008  0.000000000000000    2137.75317382813     256214.250000000     520336.125000000   
 -7.05000000000000e-008 -1.95000000000000e-008  0.000000000000000    1782.63732910156     256833.718750000     520031.968750000   
 -6.95000000000000e-008 -1.95000000000000e-008  0.000000000000000    1482.71252441406     257357.359375000     519773.968750000   
 -6.85000000000000e-008 -1.95000000000000e-008  0.000000000000000    1230.39978027344     257799.234375000     519555.625000000   
 -6.75000000000000e-008 -1.95000000000000e-008  0.000000000000000    1018.89038085938     258171.546875000     519371.187500000   
 -6.65000000000000e-008 -1.95000000000000e-008  0.000000000000000    842.167724609375     258484.781250000     519215.656250000   
 -6.55000000000000e-008 -1.95000000000000e-008  0.000000000000000    694.940490722656     258748.000000000     519084.750000000   
 -6.45000000000000e-008 -1.95000000000000e-008  0.000000000000000    572.624267578125     258968.906250000     518974.750000000   
 -6.35000000000000e-008 -1.95000000000000e-008  0.000000000000000    471.247192382813     259154.093750000     518882.375000000   
 -6.25000000000000e-008 -1.95000000000000e-008  0.000000000000000    387.420837402344     259309.187500000     518804.968750000   
 -6.15000000000000e-008 -1.95000000000000e-008  0.000000000000000    318.240905761719     259438.968750000     518740.125000000   
 -6.05000000000000e-008 -1.95000000000000e-008  0.000000000000000    261.261566162109     259547.468750000     518685.875000000   
 -5.95000000000000e-008 -1.95000000000000e-008  0.000000000000000    214.401641845703     259638.093750000     518640.531250000   
 -5.85000000000000e-008 -1.95000000000000e-008  0.000000000000000    175.929183959961     259713.765625000     518602.687500000   
 -5.75000000000000e-008 -1.95000000000000e-008  0.000000000000000    144.376495361328     259776.875000000     518571.062500000   
 -5.65000000000000e-008 -1.95000000000000e-008  0.000000000000000    118.536499023438     259829.515625000     518544.718750000   
 -5.55000000000000e-008 -1.95000000000000e-008  0.000000000000000    97.3871154785156     259873.375000000     518522.718750000   
 -5.45000000000000e-008 -1.95000000000000e-008  0.000000000000000    80.0986251831055     259909.906250000     518504.406250000   
 -5.35000000000000e-008 -1.95000000000000e-008  0.000000000000000    65.9661941528320     259940.343750000     518489.156250000   
 -5.25000000000000e-008 -1.95000000000000e-008  0.000000000000000    54.4266204833984     259965.671875000     518476.468750000   
 -5.15000000000000e-008 -1.95000000000000e-008  0.000000000000000    44.9973182678223     259986.750000000     518465.906250000   
 -5.05000000000000e-008 -1.95000000000000e-008  0.000000000000000    37.3006095886230     260004.281250000     518457.093750000   
 -4.95000000000000e-008 -1.95000000000000e-008  0.000000000000000    31.0075435638428     260018.875000000     518449.781250000   
 -4.85000000000000e-008 -1.95000000000000e-008  0.000000000000000    25.8680496215820     260031.031250000     518443.687500000   
 -4.75000000000000e-008 -1.95000000000000e-008  0.000000000000000    21.6582126617432     260041.125000000     518438.625000000   
 -4.65000000000000e-008 -1.95000000000000e-008  0.000000000000000    18.2148551940918     260049.531250000     518434.406250000   
 -4.55000000000000e-008 -1.95000000000000e-008  0.000000000000000    15.3851871490479     260056.531250000     518430.906250000   
 -4.45000000000000e-008 -1.95000000000000e-008  0.000000000000000    13.0646858215332     260062.359375000     518427.968750000   
 -4.35000000000000e-008 -1.95000000000000e-008  0.000000000000000    11.1483373641968     260067.218750000     518425.531250000   
 -4.25000000000000e-008 -1.95000000000000e-008  0.000000000000000    9.57091331481934     260071.265625000     518423.500000000   
 -4.15000000000000e-008 -1.95000000000000e-008  0.000000000000000    8.25926208496094     260074.640625000     518421.812500000   
 -4.05000000000000e-008 -1.95000000000000e-008  0.000000000000000    7.17430448532104     260077.453125000     518420.406250000   
 -3.95000000000000e-008 -1.95000000000000e-008  0.000000000000000    6.26401329040527     260079.812500000     518419.218750000   
 -3.85000000000000e-008 -1.95000000000000e-008  0.000000000000000    5.50660610198975     260081.781250000     518418.250000000   
 -3.75000000000000e-008 -1.95000000000000e-008  0.000000000000000    4.86399030685425     260083.421875000     518417.406250000   
 -3.65000000000000e-008 -1.95000000000000e-008  0.000000000000000    4.32576084136963     260084.812500000     518416.718750000   
 -3.55000000000000e-008 -1.95000000000000e-008  0.000000000000000    3.86298942565918     260085.968750000     518416.125000000   
 -3.45000000000000e-008 -1.95000000000000e-008  0.000000000000000    3.47271060943604     260086.953125000     518415.625000000   
 -3.35000000000000e-008 -1.95000000000000e-008  0.000000000000000    3.13201737403870     260087.781250000     518415.218750000   
 -3.25000000000000e-008 -1.95000000000000e-008  0.000000000000000    2.84278154373169     260088.484375000     518414.875000000   
 -3.15000000000000e-008 -1.95000000000000e-008  0.000000000000000    2.58606362342834     260089.078125000     518414.562500000   
 -3.05000000000000e-008 -1.95000000000000e-008  0.000000000000000    2.36685633659363     260089.578125000     518414.312500000   
 -2.95000000000000e-008 -1.95000000000000e-008  0.000000000000000    2.16885685920715     260090.015625000     518414.093750000   
 -2.85000000000000e-008 -1.95000000000000e-008  0.000000000000000    1.99905216693878     260090.375000000     518413.906250000   
 -2.75000000000000e-008 -1.95000000000000e-008  0.000000000000000    1.84292137622833     260090.703125000     518413.750000000   
 -2.65000000000000e-008 -1.95000000000000e-008  0.000000000000000    1.70870316028595     260090.968750000     518413.625000000   
 -2.55000000000000e-008 -1.95000000000000e-008  0.000000000000000    1.58311629295349     260091.203125000     518413.500000000   
 -2.45000000000000e-008 -1.95000000000000e-008  0.000000000000000    1.47516143321991     260091.421875000     518413.406250000   
 -2.35000000000000e-008 -1.95000000000000e-008  0.000000000000000    1.37245547771454     260091.593750000     518413.312500000   
 -2.25000000000000e-008 -1.95000000000000e-008  0.000000000000000    1.28443396091461     260091.750000000     518413.218750000   
 -2.15000000000000e-008 -1.95000000000000e-008  0.000000000000000    1.19939959049225     260091.890625000     518413.156250000   
 -2.05000000000000e-008 -1.95000000000000e-008  0.000000000000000    1.12699997425079     260092.015625000     518413.093750000   
 -1.95000000000000e-008 -1.95000000000000e-008  0.000000000000000    1.05609297752380     260092.125000000     518413.062500000   
 -1.85000000000000e-008 -1.95000000000000e-008  0.000000000000000    0.996381878852844    260092.218750000     518413.000000000   
 -1.75000000000000e-008 -1.95000000000000e-008  0.000000000000000    0.937199115753174    260092.296875000     518412.968750000   
 -1.65000000000000e-008 -1.95000000000000e-008  0.000000000000000    0.888188958168030    260092.375000000     518412.906250000   
 -1.55000000000000e-008 -1.95000000000000e-008  0.000000000000000    0.839109122753143    260092.437500000     518412.875000000   
 -1.45000000000000e-008 -1.95000000000000e-008  0.000000000000000    0.799456775188446    260092.500000000     518412.843750000   
 -1.35000000000000e-008 -1.95000000000000e-008  0.000000000000000    0.759383738040924    260092.562500000     518412.843750000   
 -1.25000000000000e-008 -1.95000000000000e-008  0.000000000000000    0.728169441223145    260092.609375000     518412.812500000   
 -1.15000000000000e-008 -1.95000000000000e-008  0.000000000000000    0.696340143680573    260092.640625000     518412.781250000   
 -1.05000000000000e-008 -1.95000000000000e-008  0.000000000000000    0.672898709774017    260092.687500000     518412.750000000   
 -9.49999999999997e-009 -1.95000000000000e-008  0.000000000000000    0.648733317852020    260092.718750000     518412.750000000   
 -8.49999999999998e-009 -1.95000000000000e-008  0.000000000000000    0.632521092891693    260092.750000000     518412.718750000   
 -7.49999999999995e-009 -1.95000000000000e-008  0.000000000000000    0.615504682064056    260092.781250000     518412.718750000   
 -6.49999999999996e-009 -1.95000000000000e-008  0.000000000000000    0.605994760990143    260092.812500000     518412.687500000   
 -5.49999999999996e-009 -1.95000000000000e-008  0.000000000000000    0.595585465431213    260092.843750000     518412.687500000   
 -4.49999999999997e-009 -1.95000000000000e-008  0.000000000000000    0.592188298702240    260092.859375000     518412.687500000   
 -3.49999999999997e-009 -1.95000000000000e-008  0.000000000000000    0.587750375270844    260092.890625000     518412.656250000   
 -2.49999999999998e-009 -1.95000000000000e-008  0.000000000000000    0.589759707450867    260092.906250000     518412.656250000   
 -1.49999999999998e-009 -1.95000000000000e-008  0.000000000000000    0.590522170066834    260092.937500000     518412.656250000   
 -4.99999999999958e-010 -1.95000000000000e-008  0.000000000000000    0.597086489200592    260092.953125000     518412.625000000   
  5.00000000000038e-010 -1.95000000000000e-008  0.000000000000000    0.602127373218536    260092.984375000     518412.625000000   
  1.50000000000003e-009 -1.95000000000000e-008  0.000000000000000    0.612247169017792    260093.000000000     518412.593750000   
  2.50000000000003e-009 -1.95000000000000e-008  0.000000000000000    0.620503246784210    260093.031250000     518412.593750000   
  3.50000000000002e-009 -1.95000000000000e-008  0.000000000000000    0.633052587509155    260093.046875000     518412.593750000   
  4.50000000000002e-009 -1.95000000000000e-008  0.000000000000000    0.643352270126343    260093.078125000     518412.562500000   
  5.50000000000004e-009 -1.95000000000000e-008  0.000000000000000    0.657122015953064    260093.109375000     518412.562500000   
  6.50000000000004e-009 -1.95000000000000e-008  0.000000000000000    0.668237924575806    260093.140625000     518412.531250000   
  7.50000000000003e-009 -1.95000000000000e-008  0.000000000000000    0.681996107101440    260093.171875000     518412.531250000   
  8.50000000000003e-009 -1.95000000000000e-008  0.000000000000000    0.692711591720581    260093.203125000     518412.500000000   
  9.50000000000003e-009 -1.95000000000000e-008  0.000000000000000    0.705274879932404    260093.234375000     518412.500000000   
  1.05000000000000e-008 -1.95000000000000e-008  0.000000000000000    0.714458525180817    260093.265625000     518412.468750000   
  1.15000000000000e-008 -1.95000000000000e-008  0.000000000000000    0.724767625331879    260093.312500000     518412.437500000   
  1.25000000000000e-008 -1.95000000000000e-008  0.000000000000000    0.731447994709015    260093.343750000     518412.437500000   
  1.35000000000000e-008 -1.95000000000000e-008  0.000000000000000    0.738639771938324    260093.375000000     518412.406250000   
  1.45000000000000e-008 -1.95000000000000e-008  0.000000000000000    0.742072880268097    260093.421875000     518412.406250000   
  1.55000000000000e-008 -1.95000000000000e-008  0.000000000000000    0.745541632175446    260093.453125000     518412.375000000   
  1.65000000000000e-008 -1.95000000000000e-008  0.000000000000000    0.745264589786530    260093.484375000     518412.375000000   
  1.75000000000000e-008 -1.95000000000000e-008  0.000000000000000    0.744706213474274    260093.531250000     518412.343750000   
  1.85000000000000e-008 -1.95000000000000e-008  0.000000000000000    0.740571200847626    260093.562500000     518412.312500000   
  1.95000000000000e-008 -1.95000000000000e-008  0.000000000000000    0.736005961894989    260093.593750000     518412.312500000   
  2.05000000000000e-008 -1.95000000000000e-008  0.000000000000000    0.728190422058105    260093.625000000     518412.281250000   
  2.15000000000000e-008 -1.95000000000000e-008  0.000000000000000    0.719960689544678    260093.656250000     518412.281250000   